8
 energy: -7.336182650210 gnorm: 0.014336081251 xtb: 6.7.1 (edcfbbe)
C           -0.75595400000000       -0.00283900000000       -0.01022700000000
C            0.75595500000000        0.00283900000000        0.01022700000000
H           -1.12632000000000       -0.50481000000000       -0.90904600000000
H           -1.14431500000000        1.01996500000000       -0.00208900000000
H           -1.15023100000000       -0.52800200000000        0.86485500000000
H            1.14431500000000       -1.01996600000000        0.00209200000000
H            1.15023100000000        0.52800200000000       -0.86485600000000
H            1.12631800000000        0.50481100000000        0.90904500000000
