34
 energy: -38.856381869018 gnorm: 0.032800149626 xtb: 6.7.1 (edcfbbe)
C            4.97527200000000        0.99728000000000       -0.39000500000000
C            4.24380300000000       -0.32928800000000       -0.51990700000000
C            2.76114400000000       -0.18797000000000       -0.17279400000000
C            2.03068500000000       -1.52568400000000       -0.30887300000000
C            0.56747800000000       -1.46292300000000        0.13173700000000
C           -0.30117100000000       -0.57592300000000       -0.75854800000000
O           -1.67514600000000       -0.70104300000000       -0.38996500000000
C           -2.07679200000000        0.17757100000000        0.66226300000000
C           -2.47469300000000        1.54367900000000        0.11114800000000
C           -3.85763800000000        1.31973700000000       -0.49576900000000
C           -4.45709300000000        0.12662000000000        0.24707300000000
C           -3.39216400000000       -0.33337300000000        1.24037500000000
H            4.55092400000000        1.74710900000000       -1.06530000000000
H            6.03307700000000        0.87308500000000       -0.64205600000000
H            4.91257900000000        1.38123200000000        0.63321500000000
H            4.71364600000000       -1.06473700000000        0.14345900000000
H            4.35216400000000       -0.70099700000000       -1.54548900000000
H            2.65843200000000        0.18456200000000        0.85357600000000
H            2.30772200000000        0.55718700000000       -0.83594800000000
H            2.54119800000000       -2.27707200000000        0.30629800000000
H            2.08802900000000       -1.87599500000000       -1.34661700000000
H            0.15135700000000       -2.47846100000000        0.12818800000000
H            0.50844500000000       -1.12707000000000        1.17350100000000
H           -0.22070700000000       -0.91422300000000       -1.79710200000000
H            0.01477400000000        0.47152000000000       -0.72785000000000
H           -1.30471300000000        0.24269400000000        1.43528700000000
H           -2.54796600000000        2.26984300000000        0.92948400000000
H           -1.78001300000000        1.93514500000000       -0.63712900000000
H           -3.77199800000000        1.08640500000000       -1.56349700000000
H           -4.48283700000000        2.21367200000000       -0.40501200000000
H           -4.69160400000000       -0.67458900000000       -0.46323800000000
H           -5.38753800000000        0.39198300000000        0.75932000000000
H           -3.57904700000000        0.13082300000000        2.21602300000000
H           -3.40961200000000       -1.42080000000000        1.36290800000000
