8
 energy: -7.336182652743 gnorm: 0.014335971005 xtb: 6.7.1 (edcfbbe)
C           -0.75290100000000        0.02388900000000       -0.06441600000000
C            0.75290100000000       -0.02388900000000        0.06441500000000
H           -1.19233400000000        0.58223200000000        0.76755300000000
H           -1.04339100000000        0.51288600000000       -0.99903700000000
H           -1.17132200000000       -0.98701300000000       -0.06001100000000
H            1.19233400000000       -0.58223100000000       -0.76755400000000
H            1.17132200000000        0.98701300000000        0.06001300000000
H            1.04339100000000       -0.51288800000000        0.99903600000000
