12
 energy: -14.557324223769 gnorm: 0.019674227914 xtb: 6.7.1 (edcfbbe)
C           -1.30516300000000       -0.00798800000000        0.50495100000000
C           -0.13878500000000        0.64931100000000       -0.21869100000000
C            0.91038800000000       -0.36192300000000       -0.66354700000000
O            1.48761800000000       -1.01906900000000        0.45599200000000
H           -2.04863800000000        0.74531800000000        0.78415400000000
H           -0.97439200000000       -0.50948300000000        1.41984100000000
H           -1.79589100000000       -0.74805200000000       -0.13519600000000
H           -0.51494400000000        1.19071700000000       -1.09364800000000
H            0.31856400000000        1.38277700000000        0.45540200000000
H            0.46876100000000       -1.12200300000000       -1.31557700000000
H            1.71115700000000        0.13655100000000       -1.21901000000000
H            1.88132600000000       -0.33615600000000        1.02532900000000
