5
 energy: -7.745445635795 gnorm: 0.007279799291 xtb: 6.7.1 (edcfbbe)
C           -0.18382300000000       -0.00255800000000       -0.00372200000000
Br           1.75051000000000        0.02436300000000        0.03544400000000
H           -0.49736300000000       -0.76612000000000       -0.71707000000000
H           -0.52987200000000        0.98425300000000       -0.31461200000000
H           -0.53945200000000       -0.23993800000000        0.99996000000000
